LAMMPS (3 Mar 2020)

# Find minimum energy fcc configuration
# Mark Tschopp, 2010

# ---------- Initialize Simulation ---------------------
clear
units metal
dimension 3
boundary p p p
atom_style atomic
atom_modify map array

# ---------- Create Atoms ---------------------
lattice 	fcc 2.9
Lattice spacing in x,y,z = 2.9 2.9 2.9
region	box block 0 1 0 1 0 1 units lattice
create_box	1 box
Created orthogonal box = (0 0 0) to (2.9 2.9 2.9)
  1 by 1 by 1 MPI processor grid

lattice	fcc 4 orient x 1 0 0 orient y 0 1 0 orient z 0 0 1
Lattice spacing in x,y,z = 4 4 4
create_atoms 1 box
Created 4 atoms
  create_atoms CPU = 0.000181919 secs
replicate 1 1 1
  orthogonal box = (0 0 0) to (2.9 2.9 2.9)
  1 by 1 by 1 MPI processor grid
  4 atoms
  replicate CPU = 0.000255903 secs

# ---------- Define Interatomic Potential ---------------------
pair_style eam/alloy
pair_coeff * * Al99.eam.alloy Al
neighbor 2.0 bin
neigh_modify delay 10 check yes

# ---------- Define Settings ---------------------
compute eng all pe/atom
compute eatoms all reduce sum c_eng

# ---------- Run Minimization ---------------------
reset_timestep 0
fix 1 all box/relax iso 0.0 vmax 0.001
thermo 10
thermo_style custom step pe lx ly lz press pxx pyy pzz c_eatoms
min_style cg
minimize 1e-25 1e-25 5000 10000
WARNING: Using 'neigh_modify every 1 delay 0 check yes' setting during minimization (src/min.cpp:190)
Neighbor list info ...
  update every 1 steps, delay 0 steps, check yes
  max neighbors/atom: 2000, page size: 100000
  master list distance cutoff = 8.28721
  ghost atom cutoff = 8.28721
  binsize = 4.1436, bins = 1 1 1
  1 neighbor lists, perpetual/occasional/extra = 1 0 0
  (1) pair eam/alloy, perpetual
      attributes: half, newton on
      pair build: half/bin/atomonly/newton
      stencil: half/bin/3d/newton
      bin: standard
Per MPI rank memory allocation (min/avg/max) = 4.502 | 4.502 | 4.502 Mbytes
Step PotEng Lx Ly Lz Press Pxx Pyy Pzz c_eatoms 
       0     20.08981          2.9          2.9          2.9    3675395.8    3675395.8    3675395.8    3675395.8     20.08981 
      10    18.417927        2.929        2.929        2.929    3448798.3    3448798.3    3448798.3    3448798.3    18.417927 
      20    16.817101        2.958        2.958        2.958    3239755.2    3239755.2    3239755.2    3239755.2    16.817101 
      30    15.283792        2.987        2.987        2.987    3043645.6    3043645.6    3043645.6    3043645.6    15.283792 
      40     13.81426        3.016        3.016        3.016    2864500.5    2864500.5    2864500.5    2864500.5     13.81426 
      50    12.413217        3.045        3.045        3.045    2637387.7    2637387.7    2637387.7    2637387.7    12.413217 
      60    11.110494        3.074        3.074        3.074    2399468.7    2399468.7    2399468.7    2399468.7    11.110494 
      70    9.9008156        3.103        3.103        3.103      2183223      2183223      2183223      2183223    9.9008156 
      80    8.7791613        3.132        3.132        3.132    1979092.9    1979092.9    1979092.9    1979092.9    8.7791613 
      90     7.744567        3.161        3.161        3.161      1780732      1780732      1780732      1780732     7.744567 
     100    6.7978109         3.19         3.19         3.19    1586835.1    1586835.1    1586835.1    1586835.1    6.7978109 
     110    5.9383085        3.219        3.219        3.219    1402955.9    1402955.9    1402955.9    1402955.9    5.9383085 
     120    5.1625013        3.248        3.248        3.248    1231592.4    1231592.4    1231592.4    1231592.4    5.1625013 
     130    4.4661806        3.277        3.277        3.277    1072416.8    1072416.8    1072416.8    1072416.8    4.4661806 
     140    3.8446817        3.306        3.306        3.306    925865.09    925865.09    925865.09    925865.09    3.8446817 
     150    3.2924466        3.335        3.335        3.335    793059.84    793059.84    793059.84    793059.84    3.2924466 
     160    2.8023816        3.364        3.364        3.364    676839.16    676839.16    676839.16    676839.16    2.8023816 
     170    2.3633567        3.393        3.393        3.393    585567.24    585567.24    585567.24    585567.24    2.3633567 
     180    1.9632105        3.422        3.422        3.422    513670.51    513670.51    513670.51    513670.51    1.9632105 
     190    1.5935068        3.451        3.451        3.451    455330.41    455330.41    455330.41    455330.41    1.5935068 
     200    1.2483326         3.48         3.48         3.48    407454.26    407454.26    407454.26    407454.26    1.2483326 
     210   0.92288384        3.509        3.509        3.509    369145.03    369145.03    369145.03    369145.03   0.92288384 
     220   0.61377764        3.538        3.538        3.538    334437.34    334437.34    334437.34    334437.34   0.61377764 
     230   0.31975797        3.567        3.567        3.567    301896.19    301896.19    301896.19    301896.19   0.31975797 
     240  0.038270515        3.596        3.596        3.596    274003.11    274003.11    274003.11    274003.11  0.038270515 
     250  -0.23398679        3.625        3.625        3.625     251079.4     251079.4     251079.4     251079.4  -0.23398679 
     260  -0.50008551        3.654        3.654        3.654     232501.3     232501.3     232501.3     232501.3  -0.50008551 
     270  -0.76281723        3.683        3.683        3.683    218258.24    218258.24    218258.24    218258.24  -0.76281723 
     280   -1.0243963        3.712        3.712        3.712    206861.52    206861.52    206861.52    206861.52   -1.0243963 
     290   -1.2862984        3.741        3.741        3.741    197154.41    197154.41    197154.41    197154.41   -1.2862984 
     300   -1.5498957         3.77         3.77         3.77    190453.28    190453.28    190453.28    190453.28   -1.5498957 
     310   -1.8163799        3.799        3.799        3.799    186687.59    186687.59    186687.59    186687.59   -1.8163799 
     320   -2.0865089        3.828        3.828        3.828    184579.47    184579.47    184579.47    184579.47   -2.0865089 
     330   -2.3606113        3.857        3.857        3.857     183363.7     183363.7     183363.7     183363.7   -2.3606113 
     340   -2.6387752        3.886        3.886        3.886    182457.67    182457.67    182457.67    182457.67   -2.6387752 
     350    -2.920888        3.915        3.915        3.915     181441.1     181441.1     181441.1     181441.1    -2.920888 
     360   -3.2066979        3.944        3.944        3.944    180149.44    180149.44    180149.44    180149.44   -3.2066979 
     370   -3.4958705        3.973        3.973        3.973    178626.89    178626.89    178626.89    178626.89   -3.4958705 
     380   -3.7880766        4.002        4.002        4.002    176929.72    176929.72    176929.72    176929.72   -3.7880766 
     390   -4.0830034        4.031        4.031        4.031    175496.42    175496.42    175496.42    175496.42   -4.0830034 
     400   -4.3802563         4.06         4.06         4.06    174295.64    174295.64    174295.64    174295.64   -4.3802563 
     410   -4.6792591        4.089        4.089        4.089    172737.56    172737.56    172737.56    172737.56   -4.6792591 
     420   -4.9792055        4.118        4.118        4.118    170084.82    170084.82    170084.82    170084.82   -4.9792055 
     430   -5.2790773        4.147        4.147        4.147    165793.14    165793.14    165793.14    165793.14   -5.2790773 
     440   -5.5777684        4.176        4.176        4.176    159711.74    159711.74    159711.74    159711.74   -5.5777684 
     450   -5.8742009        4.205        4.205        4.205    151978.08    151978.08    151978.08    151978.08   -5.8742009 
     460    -6.167514        4.234        4.234        4.234    143217.57    143217.57    143217.57    143217.57    -6.167514 
     470   -6.4571238        4.263        4.263        4.263    134376.77    134376.77    134376.77    134376.77   -6.4571238 
     480   -6.7425428        4.292        4.292        4.292    126083.49    126083.49    126083.49    126083.49   -6.7425428 
     490   -7.0232473        4.321        4.321        4.321    118557.18    118557.18    118557.18    118557.18   -7.0232473 
     500   -7.2986097         4.35         4.35         4.35    111620.33    111620.33    111620.33    111620.33   -7.2986097 
     510   -7.5679321        4.379        4.379        4.379     104789.1     104789.1     104789.1     104789.1   -7.5679321 
     520   -7.8305935        4.408        4.408        4.408    97554.214    97554.214    97554.214    97554.214   -7.8305935 
     530   -8.0860531        4.437        4.437        4.437    89672.866    89672.866    89672.866    89672.866   -8.0860531 
     540   -8.3338427        4.466        4.466        4.466    81120.666    81120.666    81120.666    81120.666   -8.3338427 
     550   -8.5735174        4.495        4.495        4.495    72073.798    72073.798    72073.798    72073.798   -8.5735174 
     560   -8.8048322        4.524        4.524        4.524    62435.729    62435.729    62435.729    62435.729   -8.8048322 
     570   -9.0282108        4.553        4.553        4.553    51962.237    51962.237    51962.237    51962.237   -9.0282108 
     580    -9.245951        4.582        4.582        4.582    40267.363    40267.363    40267.363    40267.363    -9.245951 
     590   -9.4659706        4.611        4.611        4.611    27899.695    27899.695    27899.695    27899.695   -9.4659706 
     600   -9.7181003         4.64         4.64         4.64     13553.35     13553.35     13553.35     13553.35   -9.7181003 
     610   -10.223841       4.6458       4.6458       4.6458   -9763.6742   -9763.6742   -9763.6742   -9763.6742   -10.223841 
     620   -10.420096       4.6168       4.6168       4.6168   -14282.912   -14282.912   -14282.912   -14282.912   -10.420096 
     630   -10.567852       4.5878       4.5878       4.5878   -16768.777   -16768.777   -16768.777   -16768.777   -10.567852 
     640   -10.698595       4.5588       4.5588       4.5588   -18455.418   -18455.418   -18455.418   -18455.418   -10.698595 
     650   -10.821055       4.5298       4.5298       4.5298   -19825.019   -19825.019   -19825.019   -19825.019   -10.821055 
     660   -10.938745       4.5008       4.5008       4.5008   -21210.945   -21210.945   -21210.945   -21210.945   -10.938745 
     670    -11.05343       4.4718       4.4718       4.4718   -22850.217   -22850.217   -22850.217   -22850.217    -11.05343 
     680    -11.16625       4.4428       4.4428       4.4428    -24858.17    -24858.17    -24858.17    -24858.17    -11.16625 
     690   -11.278402       4.4138       4.4138       4.4138   -26838.865   -26838.865   -26838.865   -26838.865   -11.278402 
     700   -11.391377       4.3848       4.3848       4.3848   -28232.566   -28232.566   -28232.566   -28232.566   -11.391377 
     710   -11.506505       4.3558       4.3558       4.3558   -28841.947   -28841.947   -28841.947   -28841.947   -11.506505 
     720   -11.625132       4.3268       4.3268       4.3268   -28420.693   -28420.693   -28420.693   -28420.693   -11.625132 
     730   -11.749125       4.2978       4.2978       4.2978   -26728.701   -26728.701   -26728.701   -26728.701   -11.749125 
     740   -11.881597       4.2688       4.2688       4.2688   -23681.106   -23681.106   -23681.106   -23681.106   -11.881597 
     750   -12.027689       4.2398       4.2398       4.2398   -19627.135   -19627.135   -19627.135   -19627.135   -12.027689 
     760   -12.194763       4.2108       4.2108       4.2108     -15117.7     -15117.7     -15117.7     -15117.7   -12.194763 
     770   -12.391804       4.1818       4.1818       4.1818   -10927.986   -10927.986   -10927.986   -10927.986   -12.391804 
     780   -12.616189       4.1528       4.1528       4.1528   -8052.9186   -8052.9186   -8052.9186   -8052.9186   -12.616189 
     790   -12.843749       4.1238       4.1238       4.1238   -6266.8986   -6266.8986   -6266.8986   -6266.8986   -12.843749 
     800    -13.05923       4.0948       4.0948       4.0948   -4097.2687   -4097.2687   -4097.2687   -4097.2687    -13.05923 
     810   -13.282723       4.0658       4.0658       4.0658   -1474.6081   -1474.6081   -1474.6081   -1474.6081   -13.282723 
     820       -13.44    4.0500047    4.0500047    4.0500047 -0.016203266 -0.016203266 -0.016203266 -0.016203266       -13.44 
     826       -13.44    4.0500047    4.0500047    4.0500047 -2.9231027e-10 -2.9052516e-10 -2.8784751e-10 -2.9855812e-10       -13.44 
Loop time of 0.0219232 on 1 procs for 826 steps with 4 atoms

100.0% CPU use with 1 MPI tasks x no OpenMP threads

Minimization stats:
  Stopping criterion = energy tolerance
  Energy initial, next-to-last, final = 
          20.089810192     -13.4399999527     -13.4399999527
  Force two-norm initial, final = 169.375 2.91548e-14
  Force max component initial, final = 167.845 2.60354e-14
  Final line search alpha, max atom move = 1 2.60354e-14
  Iterations, force evaluations = 826 836

MPI task timing breakdown:
Section |  min time  |  avg time  |  max time  |%varavg| %total
---------------------------------------------------------------
Pair    | 0.012728   | 0.012728   | 0.012728   |   0.0 | 58.06
Neigh   | 4.1365e-05 | 4.1365e-05 | 4.1365e-05 |   0.0 |  0.19
Comm    | 0.0023007  | 0.0023007  | 0.0023007  |   0.0 | 10.49
Output  | 0.0010014  | 0.0010014  | 0.0010014  |   0.0 |  4.57
Modify  | 0          | 0          | 0          |   0.0 |  0.00
Other   |            | 0.005852   |            |       | 26.69

Nlocal:    4 ave 4 max 4 min
Histogram: 1 0 0 0 0 0 0 0 0 0
Nghost:    496 ave 496 max 496 min
Histogram: 1 0 0 0 0 0 0 0 0 0
Neighs:    262 ave 262 max 262 min
Histogram: 1 0 0 0 0 0 0 0 0 0

Total # of neighbors = 262
Ave neighs/atom = 65.5
Neighbor list builds = 2
Dangerous builds = 0

variable natoms equal "count(all)"
variable teng equal "c_eatoms"
variable length equal "lx"
variable ecoh equal "v_teng/v_natoms"

print "Total energy (eV) = ${teng};"
Total energy (eV) = -13.4399999527351;
print "Number of atoms = ${natoms};"
Number of atoms = 4;
print "Lattice constant (Angstoms) = ${length};"
Lattice constant (Angstoms) = 4.05000466178543;
print "Cohesive energy (eV) = ${ecoh};"
Cohesive energy (eV) = -3.35999998818377;

print "All done!"
All done!

Total wall time: 0:00:00
